 Q-Chem 4.3 (beta), Q-Chem, Inc., Pleasanton, CA (2015)
 Q-Chem 4.3.0 for Intel X86 EM64T Linux

User input:
--------------------------------------------------------------
$molecule
0 1
C      0.0000000    0.0000000    0.0000000
O     -0.8361998    0.6690202    0.4378004
O      0.7377005   -0.7639198   -0.4848003
$end

$external_charges
$end

$rem
 jobtype = freq
 method = b3lyp
 basis = 6-31g**
 chelpg = false
 molden_format = false
$end

--------------------------------------------------------------

             Standard Nuclear Orientation (Angstroms)
    I     Atom           X                Y                Z
 ----------------------------------------------------------------
    1      C       0.0000000000     0.0000000000     0.0000000000
    2      O      -0.8361998000     0.6690202000     0.4378004000
    3      O       0.7377005000    -0.7639198000    -0.4848003000
 ----------------------------------------------------------------

   11    -188.5793254182      2.59E-09 Convergence criterion met
 Total energy in the final basis set = -188.5793254182

                    Orbital Energies (a.u.)
 --------------------------------------------------------------

 Alpha MOs
 -- Occupied --
-19.236 -19.234 -10.383  -1.165  -1.122  -0.561  -0.517  -0.515
 -0.515  -0.370  -0.370

          Ground-State Mulliken Net Atomic Charges

     Atom                 Charge (a.u.)
  ----------------------------------------
      1 C                     0.714405
      2 O                    -0.352207
      3 O                    -0.362198
  ----------------------------------------
  Sum of atomic charges =     0.000000

                    Cartesian Multipole Moments
 -----------------------------------------------------------------
    Charge (ESU x 10^10)
                 0.0000
    Dipole Moment (Debye)
         X       0.0962      Y       0.1470      Z       0.0767
       Tot       0.1917
    Quadrupole Moments (Debye-Ang)
        XX     -16.4748     XY       1.8690     YY     -16.1241
        XZ       1.2035     YZ      -1.0972     ZZ     -15.1260

 Frequency:       621.29                1410.25                2498.02
 Force Cnst:      2.9340                18.6957                47.3623
 Red. Mass:      12.9010                15.9552                12.8822
 IR Intens:       30.852                  0.431                554.265

 STANDARD THERMODYNAMIC QUANTITIES AT   298.15 K  AND     1.00 ATM

   This Molecule has  0 Imaginary Frequencies
   Zero point vibrational energy:        6.475 kcal/mol

   Atom    1 Element C  Has Mass   12.00000
   Atom    2 Element O  Has Mass   15.99491
   Atom    3 Element O  Has Mass   15.99491
   Molecular Mass:    43.989820 amu
   Principal axes and moments of inertia in amu*Bohr^2:
                             1           2           3
    Eigenvalues --        0.16210   153.69832   153.86042
          X               0.67840     0.73221     0.06038
          Y              -0.61774     0.61296    -0.49263
          Z              -0.39772     0.29690     0.86814
   Rotational Symmetry Number is   1
   The Molecule is an Asymmetric Top
   Translational Enthalpy:        0.889 kcal/mol
   Rotational Enthalpy:           0.889 kcal/mol
   Vibrational Enthalpy:          6.573 kcal/mol
   gas constant (RT):             0.592 kcal/mol
   Translational Entropy:        37.270  cal/mol.K
   Rotational Entropy:           16.001  cal/mol.K
   Vibrational Entropy:           0.432  cal/mol.K

   Total Enthalpy:                8.943 kcal/mol
   Total Entropy:                53.703  cal/mol.K

 Total job time:  24.77s(wall), 24.75s(cpu)
        *  Thank you very much for using Q-Chem.  Have a nice day.  *
