 Q-Chem 4.3, Q-Chem, Inc., Pleasanton, CA (2015)
 Q-Chem 4.3.0 for Intel X86 EM64T Linux

User input:
--------------------------------------------------------------
$molecule
0 1
-- F6P (92) :: C8H15N2 (364) ::
0 1
F      3.4802800000    2.2838000000   -1.7501000000
F      3.0137500000   -0.6444988000   -2.8564000000
F      4.7858800000    0.6827011000   -2.9553000000
F      1.8269400000    0.9263000000   -1.8172000000
F      2.7712200000    1.3688000000   -3.8109000000
F      3.7083800000    0.2999001000   -0.9099998000
P      3.2871800000    0.8346004000   -2.3382000000
N      2.0503500000   -0.9216995000    3.9774000000
C      2.0794700000   -2.1273990000    4.6735990000
N      1.1441000000   -1.9804990000    5.6174960000
C      0.6420994000   -0.6618004000    5.5901990000
C      1.1472700000    0.0164012910    4.4965000000
H      2.6912200000   -2.9867990000    4.4468000000
H      0.0673999790   -0.3323994000    6.4470980000
H      1.0002990000    0.9798012000    4.0240990000
C      2.7387100000   -0.7742996000    2.7254010000
H      2.6675100000   -1.7027990000    2.1532000000
H      3.7996300000   -0.5114002000    2.7231010000
H      2.2103200000    0.0531005860    2.2448010000
C      0.9215097000   -2.8529990000    6.7017970000
H      0.2820997000   -2.4365010000    7.4842990000
H      1.8694900000   -3.2635990000    7.0585980000
C      0.3255997000   -4.1637990000    6.1403010000
H     -0.6408005000   -3.9976010000    5.6596980000
H      1.0438500000   -4.4697990000    5.3767970000
C      0.3418999000   -5.3160000000    7.1679990000
H      1.3799800000   -5.4450000000    7.4812970000
H     -0.1515999000   -6.1763000000    6.7110980000
C     -0.4596004000   -5.1635990000    8.3972970000
H     -1.5202000000   -5.0874000000    8.1488000000
H     -0.2294006000   -5.9622990000    9.1054990000
H     -0.1578007000   -4.3039000000    8.9990960000
-- CO2 (512)
0 1
C      0.0000000000    0.0000000000    0.0000000000
O     -0.1240005000   -0.6795998000   -0.9318008000
O      0.1239996000    0.6795998000    0.9319000000
$end

$external_charges
 0.027100 -4.804699 2.931801 -0.245000
 -1.861000 -2.627399 1.427099 -0.246000
 -1.791201 -4.965599 1.664301 -0.246000
 0.191700 -2.496099 2.357500 -0.246000
 -0.000200 -3.955200 0.651501 -0.246000
 -1.613900 -3.362700 3.421900 -0.246000
 -0.784801 -3.710300 2.038500 0.635000
 0.243199 3.133801 4.989498 -0.245000
 1.120120 5.381400 6.989998 -0.246000
 2.032240 3.434100 6.108398 -0.246000
 -0.778200 4.908601 5.929897 -0.246000
 0.139800 3.382401 7.285099 -0.246000
 1.223030 5.013600 4.761400 -0.246000
 0.671900 4.197201 6.027798 0.635000
 4.009020 2.647000 2.462400 0.177000
 4.934960 2.838700 1.487101 -0.138000
 6.136950 2.387401 1.995001 0.261000
 5.840380 1.808701 3.242399 -0.230000
 4.542250 2.070900 3.605000 -0.126000
 4.759890 3.286901 0.521299 0.195000
 6.658780 1.414801 3.832300 0.225000
 3.947710 1.954201 4.502600 0.189000
 2.618560 2.900801 2.269701 -0.295000
 2.152470 2.068501 1.736300 0.146000
 2.500529 3.796901 1.655100 0.146000
 2.082680 3.078600 3.205601 0.146000
 7.302570 2.164500 1.167400 -0.288000
 7.005670 2.218400 0.116900 0.123000
 7.792140 1.211500 1.383699 0.123000
 8.352409 3.271200 1.439400 0.037000
 8.962110 3.372101 0.539101 0.020000
 7.837359 4.232700 1.387800 0.020000
 9.172970 3.185301 2.774099 0.120000
 8.498270 3.245601 3.630600 0.011000
 9.942838 3.957601 2.832300 0.011000
 9.879436 1.809100 2.882601 -0.267000
 10.623940 1.695801 2.091801 0.078000
 10.511470 1.913501 3.767000 0.078000
 9.194980 0.996700 3.135599 0.078000
 -6.540400 -0.131700 3.595301 0.177000
 -5.636200 0.328901 4.436501 -0.138000
 -4.409201 -0.025499 3.959499 0.261000
 -4.670300 -0.862999 2.879000 -0.230000
 -6.002399 -0.869600 2.610901 -0.126000
 -5.837400 0.678101 5.437496 0.195000
 -3.895101 -1.304100 2.264700 0.225000
 -6.570700 -1.315800 1.804199 0.189000
 -7.940401 0.097200 3.737200 -0.295000
 -8.374701 -0.317600 2.823999 0.146000
 -8.072100 1.181499 3.779100 0.146000
 -8.285601 -0.322701 4.685400 0.146000
 -3.192300 0.199200 4.612101 -0.288000
 -2.789001 -0.764299 4.934101 0.123000
 -3.388801 0.827501 5.484600 0.123000
 -2.359800 1.007101 3.686899 0.037000
 -1.304000 1.034100 3.964500 0.020000
 -2.434000 0.585300 2.682400 0.020000
 -2.899800 2.432501 3.649099 0.120000
 -2.907400 2.852700 4.657000 0.011000
 -3.911700 2.480901 3.241301 0.011000
 -2.118501 3.357100 2.672501 -0.267000
 -1.688200 2.809800 1.831200 0.078000
 -2.795000 4.106800 2.257000 0.078000
 -1.364300 4.013500 3.111500 0.078000
$end

$rem
 jobtype = eda
 method = b3lyp
 basis = 6-31g**
 scf_convergence = 8
 thresh = 11
 xc_grid = 000100000302
 frgm_method = stoll
 frgm_lpcorr = rs_exact_scf
 eda_covp = true
 eda_print_covp = true
 chelpg = true
 molden_format = false
 sym_ignore = true
 symmetry = false
$end

--------------------------------------------------------------

 Q-Chem 4.3, Q-Chem, Inc., Pleasanton, CA (2015)
 Q-Chem 4.3.0 for Intel X86 EM64T Linux

User input:
--------------------------------------------------------------
$molecule
0 1
 9	3.4802800000	2.2838000000	-1.7501000000
 9	3.0137500000	-0.6444988000	-2.8564000000
 9	4.7858800000	0.6827011000	-2.9553000000
 9	1.8269400000	0.9263000000	-1.8172000000
 9	2.7712200000	1.3688000000	-3.8109000000
 9	3.7083800000	0.2999001000	-0.9099998000
 15	3.2871800000	0.8346004000	-2.3382000000
 7	2.0503500000	-0.9216995000	3.9774000000
 6	2.0794700000	-2.1273990000	4.6735990000
 7	1.1441000000	-1.9804990000	5.6174960000
 6	0.6420994000	-0.6618004000	5.5901990000
 6	1.1472700000	0.0164012910	4.4965000000
 1	2.6912200000	-2.9867990000	4.4468000000
 1	0.0673999790	-0.3323994000	6.4470980000
 1	1.0002990000	0.9798012000	4.0240990000
 6	2.7387100000	-0.7742996000	2.7254010000
 1	2.6675100000	-1.7027990000	2.1532000000
 1	3.7996300000	-0.5114002000	2.7231010000
 1	2.2103200000	0.0531005860	2.2448010000
 6	0.9215097000	-2.8529990000	6.7017970000
 1	0.2820997000	-2.4365010000	7.4842990000
 1	1.8694900000	-3.2635990000	7.0585980000
 6	0.3255997000	-4.1637990000	6.1403010000
 1	-0.6408005000	-3.9976010000	5.6596980000
 1	1.0438500000	-4.4697990000	5.3767970000
 6	0.3418999000	-5.3160000000	7.1679990000
 1	1.3799800000	-5.4450000000	7.4812970000
 1	-0.1515999000	-6.1763000000	6.7110980000
 6	-0.4596004000	-5.1635990000	8.3972970000
 1	-1.5202000000	-5.0874000000	8.1488000000
 1	-0.2294006000	-5.9622990000	9.1054990000
 1	-0.1578007000	-4.3039000000	8.9990960000
$end
$rem
METHOD		B3LYP
BASIS		6-31G**
SCF_CONVERGENCE		8
THRESH		11
XC_GRID		000100000302
CHELPG		TRUE
MOLDEN_FORMAT		FALSE
SYM_IGNORE		TRUE
SYMMETRY		FALSE
!required keywords
JOBTYPE		SP
SYM_IGNORE		TRUE
SUBSYSTEM		TRUE
SAVE_SUBSYSTEM		TRUE
PURECART		12
$end
$external_charges
 0.027100 -4.804699 2.931801 -0.245000
 -1.861000 -2.627399 1.427099 -0.246000
 -1.791201 -4.965599 1.664301 -0.246000
 0.191700 -2.496099 2.357500 -0.246000
 -0.000200 -3.955200 0.651501 -0.246000
 -1.613900 -3.362700 3.421900 -0.246000
 -0.784801 -3.710300 2.038500 0.635000
 0.243199 3.133801 4.989498 -0.245000
 1.120120 5.381400 6.989998 -0.246000
 2.032240 3.434100 6.108398 -0.246000
 -0.778200 4.908601 5.929897 -0.246000
 0.139800 3.382401 7.285099 -0.246000
 1.223030 5.013600 4.761400 -0.246000
 0.671900 4.197201 6.027798 0.635000
 4.009020 2.647000 2.462400 0.177000
 4.934960 2.838700 1.487101 -0.138000
 6.136950 2.387401 1.995001 0.261000
 5.840380 1.808701 3.242399 -0.230000
 4.542250 2.070900 3.605000 -0.126000
 4.759890 3.286901 0.521299 0.195000
 6.658780 1.414801 3.832300 0.225000
 3.947710 1.954201 4.502600 0.189000
 2.618560 2.900801 2.269701 -0.295000
 2.152470 2.068501 1.736300 0.146000
 2.500529 3.796901 1.655100 0.146000
 2.082680 3.078600 3.205601 0.146000
 7.302570 2.164500 1.167400 -0.288000
 7.005670 2.218400 0.116900 0.123000
 7.792140 1.211500 1.383699 0.123000
 8.352409 3.271200 1.439400 0.037000
 8.962110 3.372101 0.539101 0.020000
 7.837359 4.232700 1.387800 0.020000
 9.172970 3.185301 2.774099 0.120000
 8.498270 3.245601 3.630600 0.011000
 9.942838 3.957601 2.832300 0.011000
 9.879436 1.809100 2.882601 -0.267000
 10.623940 1.695801 2.091801 0.078000
 10.511470 1.913501 3.767000 0.078000
 9.194980 0.996700 3.135599 0.078000
 -6.540400 -0.131700 3.595301 0.177000
 -5.636200 0.328901 4.436501 -0.138000
 -4.409201 -0.025499 3.959499 0.261000
 -4.670300 -0.862999 2.879000 -0.230000
 -6.002399 -0.869600 2.610901 -0.126000
 -5.837400 0.678101 5.437496 0.195000
 -3.895101 -1.304100 2.264700 0.225000
 -6.570700 -1.315800 1.804199 0.189000
 -7.940401 0.097200 3.737200 -0.295000
 -8.374701 -0.317600 2.823999 0.146000
 -8.072100 1.181499 3.779100 0.146000
 -8.285601 -0.322701 4.685400 0.146000
 -3.192300 0.199200 4.612101 -0.288000
 -2.789001 -0.764299 4.934101 0.123000
 -3.388801 0.827501 5.484600 0.123000
 -2.359800 1.007101 3.686899 0.037000
 -1.304000 1.034100 3.964500 0.020000
 -2.434000 0.585300 2.682400 0.020000
 -2.899800 2.432501 3.649099 0.120000
 -2.907400 2.852700 4.657000 0.011000
 -3.911700 2.480901 3.241301 0.011000
 -2.118501 3.357100 2.672501 -0.267000
 -1.688200 2.809800 1.831200 0.078000
 -2.795000 4.106800 2.257000 0.078000
 -1.364300 4.013500 3.111500 0.078000
$end
--------------------------------------------------------------

   14   -1364.5425494842      4.27E-09 Convergence criterion met
 Total energy in the final basis set = -1364.5425494842
 Total job time:  451.77s(wall), 447.11s(cpu)
        *  Thank you very much for using Q-Chem.  Have a nice day.  *
 Q-Chem 4.3, Q-Chem, Inc., Pleasanton, CA (2015)
 Q-Chem 4.3.0 for Intel X86 EM64T Linux

User input:
--------------------------------------------------------------
$molecule
0 1
 6	0.0000000000	0.0000000000	0.0000000000
 8	-0.1240005000	-0.6795998000	-0.9318008000
 8	0.1239996000	0.6795998000	0.9319000000
$end
$rem
METHOD		B3LYP
BASIS		6-31G**
SCF_CONVERGENCE		8
THRESH		11
XC_GRID		000100000302
CHELPG		TRUE
MOLDEN_FORMAT		FALSE
SYM_IGNORE		TRUE
SYMMETRY		FALSE
!required keywords
JOBTYPE		SP
SYM_IGNORE		TRUE
SUBSYSTEM		TRUE
SAVE_SUBSYSTEM		TRUE
PURECART		12
$end
$external_charges
 0.027100 -4.804699 2.931801 -0.245000
 -1.861000 -2.627399 1.427099 -0.246000
 -1.791201 -4.965599 1.664301 -0.246000
 0.191700 -2.496099 2.357500 -0.246000
 -0.000200 -3.955200 0.651501 -0.246000
 -1.613900 -3.362700 3.421900 -0.246000
 -0.784801 -3.710300 2.038500 0.635000
 0.243199 3.133801 4.989498 -0.245000
 1.120120 5.381400 6.989998 -0.246000
 2.032240 3.434100 6.108398 -0.246000
 -0.778200 4.908601 5.929897 -0.246000
 0.139800 3.382401 7.285099 -0.246000
 1.223030 5.013600 4.761400 -0.246000
 0.671900 4.197201 6.027798 0.635000
 4.009020 2.647000 2.462400 0.177000
 4.934960 2.838700 1.487101 -0.138000
 6.136950 2.387401 1.995001 0.261000
 5.840380 1.808701 3.242399 -0.230000
 4.542250 2.070900 3.605000 -0.126000
 4.759890 3.286901 0.521299 0.195000
 6.658780 1.414801 3.832300 0.225000
 3.947710 1.954201 4.502600 0.189000
 2.618560 2.900801 2.269701 -0.295000
 2.152470 2.068501 1.736300 0.146000
 2.500529 3.796901 1.655100 0.146000
 2.082680 3.078600 3.205601 0.146000
 7.302570 2.164500 1.167400 -0.288000
 7.005670 2.218400 0.116900 0.123000
 7.792140 1.211500 1.383699 0.123000
 8.352409 3.271200 1.439400 0.037000
 8.962110 3.372101 0.539101 0.020000
 7.837359 4.232700 1.387800 0.020000
 9.172970 3.185301 2.774099 0.120000
 8.498270 3.245601 3.630600 0.011000
 9.942838 3.957601 2.832300 0.011000
 9.879436 1.809100 2.882601 -0.267000
 10.623940 1.695801 2.091801 0.078000
 10.511470 1.913501 3.767000 0.078000
 9.194980 0.996700 3.135599 0.078000
 -6.540400 -0.131700 3.595301 0.177000
 -5.636200 0.328901 4.436501 -0.138000
 -4.409201 -0.025499 3.959499 0.261000
 -4.670300 -0.862999 2.879000 -0.230000
 -6.002399 -0.869600 2.610901 -0.126000
 -5.837400 0.678101 5.437496 0.195000
 -3.895101 -1.304100 2.264700 0.225000
 -6.570700 -1.315800 1.804199 0.189000
 -7.940401 0.097200 3.737200 -0.295000
 -8.374701 -0.317600 2.823999 0.146000
 -8.072100 1.181499 3.779100 0.146000
 -8.285601 -0.322701 4.685400 0.146000
 -3.192300 0.199200 4.612101 -0.288000
 -2.789001 -0.764299 4.934101 0.123000
 -3.388801 0.827501 5.484600 0.123000
 -2.359800 1.007101 3.686899 0.037000
 -1.304000 1.034100 3.964500 0.020000
 -2.434000 0.585300 2.682400 0.020000
 -2.899800 2.432501 3.649099 0.120000
 -2.907400 2.852700 4.657000 0.011000
 -3.911700 2.480901 3.241301 0.011000
 -2.118501 3.357100 2.672501 -0.267000
 -1.688200 2.809800 1.831200 0.078000
 -2.795000 4.106800 2.257000 0.078000
 -1.364300 4.013500 3.111500 0.078000
$end
--------------------------------------------------------------

             Standard Nuclear Orientation (Angstroms)
    I     Atom           X                Y                Z
 ----------------------------------------------------------------
    1      C       0.0000000000     0.0000000000     0.0000000000
    2      O      -0.1240005000    -0.6795998000    -0.9318008000
    3      O       0.1239996000     0.6795998000     0.9319000000
 ----------------------------------------------------------------

   11    -189.2277694223      5.53E-09 Convergence criterion met
 Total energy in the final basis set = -189.2277694223
 Total job time:  7.02s(wall), 4.67s(cpu)
        *  Thank you very much for using Q-Chem.  Have a nice day.  *
   12   -1553.1335577446      5.00E-09 Convergence criterion met
   10   -1553.1339006689      6.64E-09 Convergence criterion met
 Total energy in the final basis set = -1553.1339006689

                    Orbital Energies (a.u.)
 --------------------------------------------------------------

 Alpha MOs
 -- Occupied --
 -3.112  -0.923  -0.234  -0.077  -0.054  -0.032  -0.024  -0.020
 -0.011  -0.010  -0.002  -0.001  -0.001  -0.001  -0.000  -0.000
 -0.000  -0.000  -0.000  -0.000  -0.000  -0.000  -0.000  -0.000
 -0.000  -0.000  -0.000  -0.000  -0.000  -0.000  -0.000  -0.000
 -0.000  -0.000   0.000   0.000   0.000   0.000   0.000   0.000
  0.000   0.000   0.000   0.000   0.000   0.000   0.000   0.000
  0.000   0.000   0.000   0.000   0.000   0.000   0.000   0.000
  0.000   0.000   0.000   0.000   0.000   0.000   0.000   0.000
  0.000   0.000   0.000   0.000   0.000   0.000   0.000   0.000
  0.000  -2.208  -0.380  -0.213  -0.151  -0.053  -0.034  -0.005
 -0.003  -0.001  -0.000  -0.000

         Ground-State ChElPG Net Atomic Charges

     Atom                 Charge (a.u.)
  ----------------------------------------
      1 F                    -0.356836
      2 F                    -0.326120
      3 F                    -0.343073
      4 F                    -0.318229
      5 F                    -0.353967
      6 F                    -0.376856
      7 P                     1.097481
      8 N                     0.086759
      9 C                    -0.111647
     10 N                     0.227693
     11 C                    -0.198013
     12 C                    -0.093974
     13 H                     0.252760
     14 H                     0.212508
     15 H                     0.245072
     16 C                    -0.229892
     17 H                     0.191120
     18 H                     0.096409
     19 H                     0.145365
     20 C                    -0.270115
     21 H                     0.131232
     22 H                     0.112720
     23 C                     0.179472
     24 H                     0.038839
     25 H                    -0.013650
     26 C                    -0.089163
     27 H                     0.036090
     28 H                     0.041316
     29 C                    -0.064649
     30 H                     0.023436
     31 H                     0.038937
     32 H                     0.005534
     33 C                     0.734286
     34 O                    -0.318343
     35 O                    -0.432499
  ----------------------------------------
  Sum of atomic charges =    -0.000000

                    Cartesian Multipole Moments
 -----------------------------------------------------------------
    Charge (ESU x 10^10)
                 0.0000
    Dipole Moment (Debye)
         X      -8.3731      Y     -12.4709      Z      32.3145
       Tot      35.6351
    Quadrupole Moments (Debye-Ang)
        XX    -156.1993     XY     -25.0413     YY     -96.2006
        XZ      60.3502     YZ     -38.5565     ZZ     -36.1597

 Total job time:  1271.86s(wall), 801.77s(cpu)
        *  Thank you very much for using Q-Chem.  Have a nice day.  *
